 Gaussian 16, Revision C.01,
 Gaussian 16:  ES64L-G16RevC.01  3-Jul-2019

 ---------------------------------------------
 # opt m062x/def2tzvp scrf=(smd,solvent=water)
 ---------------------------------------------

 -------------------
 Title Card Required
 -------------------
 Symbolic Z-matrix:
 Charge =  1 Multiplicity = 1

 SCF Done:  E(RM062X) =  -424.571100480     A.U. after   13 cycles
 SCF Done:  E(RM062X) =  -424.574709191     A.U. after   11 cycles
 SCF Done:  E(RM062X) =  -424.577698952     A.U. after   11 cycles
 SCF Done:  E(RM062X) =  -424.580435201     A.U. after   11 cycles
 SCF Done:  E(RM062X) =  -424.582785639     A.U. after   11 cycles
 SCF Done:  E(RM062X) =  -424.584502756     A.U. after   10 cycles
 SCF Done:  E(RM062X) =  -424.585157298     A.U. after   11 cycles
 SCF Done:  E(RM062X) =  -424.585251736     A.U. after   10 cycles
 SCF Done:  E(RM062X) =  -424.585327427     A.U. after   10 cycles
 SCF Done:  E(RM062X) =  -424.585411337     A.U. after   10 cycles
 SCF Done:  E(RM062X) =  -424.585815494     A.U. after   11 cycles
 SCF Done:  E(RM062X) =  -424.585832672     A.U. after    9 cycles
 SCF Done:  E(RM062X) =  -424.585824065     A.U. after    9 cycles
 SCF Done:  E(RM062X) =  -424.585283172     A.U. after   11 cycles
 SCF Done:  E(RM062X) =  -424.585835965     A.U. after    8 cycles
 SCF Done:  E(RM062X) =  -424.585838227     A.U. after    8 cycles
 SCF Done:  E(RM062X) =  -424.585839267     A.U. after    8 cycles
 SCF Done:  E(RM062X) =  -424.585839629     A.U. after    8 cycles
 SCF Done:  E(RM062X) =  -424.585839839     A.U. after    7 cycles
 SCF Done:  E(RM062X) =  -424.585840045     A.U. after    7 cycles
 Optimization completed.
    -- Stationary point found.

                         Standard orientation:
 ---------------------------------------------------------------------
 Center     Atomic      Atomic             Coordinates (Angstroms)
 Number     Number       Type             X           Y           Z
 ---------------------------------------------------------------------
      1          6           0       -2.498733   -0.837300    0.407237
      2          6           0       -1.168349   -1.230325    0.376615
      3          6           0       -0.189408   -0.337707   -0.048473
      4          6           0       -0.544600    0.958352   -0.414573
      5          6           0       -1.876142    1.349344   -0.379384
      6          6           0       -2.854123    0.451730    0.028790
      7          6           0        1.280692   -0.772174   -0.111344
      8          6           0        1.935922   -0.597625   -1.471235
      9          6           0        1.895170    0.009717    0.961219
     10          8           0        2.728824    0.909923    0.696787
     11          1           0       -3.258397   -1.539271    0.725955
     12          1           0       -0.887723   -2.234441    0.669947
     13          1           0        0.217151    1.661594   -0.731675
     14          1           0        1.319654   -1.811970    0.228241
     15          1           0        1.890974    0.439221   -1.801453
     16          1           0        1.413420   -1.217664   -2.197277
     17          1           0       -3.892362    0.756482    0.054388
     18          1           0       -2.147923    2.356254   -0.668385
     19          1           0        1.608706   -0.148049    2.000079
     20          1           0        2.980389   -0.905655   -1.431633
     21          1           0        3.042950    1.400051    1.484415
 ---------------------------------------------------------------------

 The electronic state is 1-A.
 Alpha  occ. eigenvalues --  -19.75651 -10.71076 -10.58179 -10.57163 -10.55089
 Alpha  occ. eigenvalues --  -10.54973 -10.54707 -10.54653 -10.54591 -10.53447
 Alpha  occ. eigenvalues --   -1.30179  -0.98734  -0.93792  -0.85295  -0.84342
 Alpha  occ. eigenvalues --   -0.81121  -0.74686  -0.69964  -0.69232  -0.67211
 Alpha  occ. eigenvalues --   -0.60710  -0.58955  -0.56550  -0.53884  -0.52678
 Alpha  occ. eigenvalues --   -0.50141  -0.49751  -0.49011  -0.46726  -0.44924
 Alpha  occ. eigenvalues --   -0.43977  -0.43584  -0.40413  -0.40219  -0.31926
 Alpha  occ. eigenvalues --   -0.31709
 Alpha virt. eigenvalues --   -0.06080   0.00940   0.02205   0.05846   0.09007
 Alpha virt. eigenvalues --    0.09699   0.10077   0.12429   0.12910   0.13450
 Alpha virt. eigenvalues --    0.14603   0.14932   0.15281   0.16925   0.17792

 Mulliken charges:
               1
     1  C   -0.161030
     2  C   -0.208008
     3  C    0.073411
     4  C   -0.210304
     5  C   -0.176086
     6  C   -0.180623
     7  C   -0.172900
     8  C   -0.461584
     9  C    0.303081
    10  O   -0.230214
    11  H    0.187827
    12  H    0.191960
    13  H    0.214989
    14  H    0.217328
    15  H    0.178262
    16  H    0.181810
    17  H    0.188156
    18  H    0.188402
    19  H    0.240598
    20  H    0.182641
    21  H    0.452282
 Sum of Mulliken charges =   1.00000

 Dipole moment (field-independent basis, Debye):
    X=              8.3294    Y=              0.8240    Z=              5.2171  Tot=              9.8629
 Quadrupole moment (field-independent basis, Debye-Ang):
   XX=            -28.3426   YY=            -46.7151   ZZ=            -49.8485
   XY=              4.2645   XZ=             11.9537   YZ=              1.2529

 Normal termination of Gaussian 16 at Fri Apr  7 23:33:19 2023.
