 Gaussian 16, Revision C.01,
 Gaussian 16:  ES64L-G16RevC.01  3-Jul-2019

 --------------------
 # opt m062x/def2tzvp
 --------------------

 -------------------
 Title Card Required
 -------------------
 Symbolic Z-matrix:
 Charge =  1 Multiplicity = 1

 SCF Done:  E(RM062X) =  -424.483696199     A.U. after   14 cycles
 SCF Done:  E(RM062X) =  -424.485667503     A.U. after   12 cycles
 SCF Done:  E(RM062X) =  -424.486751155     A.U. after   12 cycles
 SCF Done:  E(RM062X) =  -424.487650001     A.U. after   13 cycles
 SCF Done:  E(RM062X) =  -424.488213240     A.U. after   13 cycles
 SCF Done:  E(RM062X) =  -424.488567055     A.U. after   13 cycles
 SCF Done:  E(RM062X) =  -424.488725852     A.U. after   12 cycles
 SCF Done:  E(RM062X) =  -424.488771771     A.U. after   10 cycles
 SCF Done:  E(RM062X) =  -424.488775775     A.U. after    8 cycles
 SCF Done:  E(RM062X) =  -424.488778901     A.U. after    9 cycles
 SCF Done:  E(RM062X) =  -424.488781395     A.U. after    9 cycles
 SCF Done:  E(RM062X) =  -424.488782310     A.U. after    8 cycles
 SCF Done:  E(RM062X) =  -424.488783062     A.U. after    8 cycles
 SCF Done:  E(RM062X) =  -424.488783476     A.U. after    8 cycles
 Optimization completed.
    -- Stationary point found.

                         Standard orientation:
 ---------------------------------------------------------------------
 Center     Atomic      Atomic             Coordinates (Angstroms)
 Number     Number       Type             X           Y           Z
 ---------------------------------------------------------------------
      1          6           0       -2.364229   -0.966936    0.141979
      2          6           0       -1.029094   -1.296833   -0.001923
      3          6           0       -0.086341   -0.289438   -0.230674
      4          6           0       -0.478525    1.050842   -0.252382
      5          6           0       -1.817195    1.371737   -0.114135
      6          6           0       -2.757187    0.365783    0.082131
      7          6           0        1.403560   -0.686684   -0.490964
      8          6           0        2.182117    0.154665   -1.481091
      9          6           0        1.628863   -0.468257    0.915653
     10          8           0        2.173135    0.619885    1.325394
     11          1           0       -3.098855   -1.745658    0.294494
     12          1           0       -0.719293   -2.335195    0.026917
     13          1           0        0.252610    1.836755   -0.392202
     14          1           0        1.411966   -1.749782   -0.721567
     15          1           0        2.234297    1.198632   -1.181817
     16          1           0        1.706735    0.092537   -2.457600
     17          1           0       -3.802355    0.622536    0.193973
     18          1           0       -2.129046    2.406338   -0.155565
     19          1           0        1.313587   -1.203431    1.652728
     20          1           0        3.199800   -0.224774   -1.563609
     21          1           0        2.153668    0.733680    2.289530
 ---------------------------------------------------------------------

 The electronic state is 1-A.
 Alpha  occ. eigenvalues --  -19.90544 -10.87094 -10.74800 -10.73573 -10.70778
 Alpha  occ. eigenvalues --  -10.70690 -10.69651 -10.69256 -10.69240 -10.68681
 Alpha  occ. eigenvalues --   -1.45017  -1.15199  -1.09590  -1.00524  -0.99042
 Alpha  occ. eigenvalues --   -0.97249  -0.90574  -0.85731  -0.84489  -0.82332
 Alpha  occ. eigenvalues --   -0.75963  -0.74671  -0.72094  -0.69310  -0.67758
 Alpha  occ. eigenvalues --   -0.65950  -0.65375  -0.64422  -0.61626  -0.60301
 Alpha  occ. eigenvalues --   -0.59243  -0.58873  -0.55625  -0.54947  -0.46748
 Alpha  occ. eigenvalues --   -0.46662
 Alpha virt. eigenvalues --   -0.22565  -0.13474  -0.12079  -0.10901  -0.06975
 Alpha virt. eigenvalues --   -0.05411  -0.04047  -0.02478  -0.00874  -0.00054
 Alpha virt. eigenvalues --    0.00233   0.01393   0.02200   0.02365   0.03626

 Mulliken charges:
               1
     1  C   -0.124853
     2  C   -0.204792
     3  C    0.142529
     4  C   -0.208977
     5  C   -0.128679
     6  C   -0.110933
     7  C   -0.231976
     8  C   -0.403770
     9  C    0.206681
    10  O   -0.271221
    11  H    0.185035
    12  H    0.192041
    13  H    0.207072
    14  H    0.219818
    15  H    0.157343
    16  H    0.197377
    17  H    0.187330
    18  H    0.184450
    19  H    0.223146
    20  H    0.189765
    21  H    0.392613
 Sum of Mulliken charges =   1.00000

 Dipole moment (field-independent basis, Debye):
    X=              2.8347    Y=             -0.9960    Z=              3.1602  Tot=              4.3606
 Quadrupole moment (field-independent basis, Debye-Ang):
   XX=            -33.9839   YY=            -47.0200   ZZ=            -46.7026
   XY=             -1.8687   XZ=              5.1615   YZ=              0.0223

 Normal termination of Gaussian 16 at Fri Apr  7 22:57:19 2023.
