 Gaussian 16, Revision C.01,
 Gaussian 16:  ES64L-G16RevC.01  3-Jul-2019

 --------------------
 # opt m062x/def2tzvp
 --------------------

 -------------------
 Title Card Required
 -------------------
 Symbolic Z-matrix:
 Charge =  0 Multiplicity = 1

 SCF Done:  E(RM062X) =  -424.165990110     A.U. after   15 cycles
 SCF Done:  E(RM062X) =  -424.166351195     A.U. after   13 cycles
 SCF Done:  E(RM062X) =  -424.164880260     A.U. after   16 cycles
 SCF Done:  E(RM062X) =  -424.166508126     A.U. after   13 cycles
 SCF Done:  E(RM062X) =  -424.166525355     A.U. after   12 cycles
 SCF Done:  E(RM062X) =  -424.166541923     A.U. after   13 cycles
 SCF Done:  E(RM062X) =  -424.166543534     A.U. after   11 cycles
 SCF Done:  E(RM062X) =  -424.166543638     A.U. after    8 cycles
 Optimization completed.
    -- Stationary point found.

                         Standard orientation:
 ---------------------------------------------------------------------
 Center     Atomic      Atomic             Coordinates (Angstroms)
 Number     Number       Type             X           Y           Z
 ---------------------------------------------------------------------
      1          6           0        1.868625    1.345749    0.397829
      2          6           0        0.533748    0.972832    0.359068
      3          6           0        0.165914   -0.308904   -0.046632
      4          6           0        1.161086   -1.206074   -0.418642
      5          6           0        2.498889   -0.836573   -0.377839
      6          6           0        2.855463    0.440169    0.030729
      7          1           0        2.139379    2.345140    0.712928
      8          1           0       -0.234144    1.683383    0.646004
      9          1           0        0.886354   -2.204386   -0.738857
     10          6           0       -1.297088   -0.702504   -0.062655
     11          1           0       -1.375244   -1.663866   -0.583191
     12          6           0       -1.897148   -0.812405    1.333474
     13          1           0       -2.948197   -1.093619    1.279733
     14          1           0       -1.837478    0.146361    1.848050
     15          1           0        3.897563    0.730086    0.061051
     16          1           0        3.262424   -1.547232   -0.666788
     17          6           0       -2.051741    0.293080   -0.920044
     18          1           0       -1.677650    0.390203   -1.958437
     19          1           0       -1.355594   -1.554796    1.918556
     20          8           0       -2.972988    0.957062   -0.536346
 ---------------------------------------------------------------------

 The electronic state is 1-A.
 Alpha  occ. eigenvalues --  -19.63168 -10.62950 -10.56073 -10.55998 -10.55003
 Alpha  occ. eigenvalues --  -10.54952 -10.54922 -10.54850 -10.54769 -10.53090
 Alpha  occ. eigenvalues --   -1.18237  -0.97864  -0.91162  -0.85313  -0.83143
 Alpha  occ. eigenvalues --   -0.76172  -0.70269  -0.69019  -0.63952  -0.60125
 Alpha  occ. eigenvalues --   -0.57505  -0.54791  -0.53272  -0.51885  -0.50910
 Alpha  occ. eigenvalues --   -0.49485  -0.46857  -0.45701  -0.44977  -0.44029
 Alpha  occ. eigenvalues --   -0.42847  -0.40643  -0.39985  -0.33647  -0.31811
 Alpha  occ. eigenvalues --   -0.30809
 Alpha virt. eigenvalues --    0.00099   0.01070   0.03322   0.07027   0.08569
 Alpha virt. eigenvalues --    0.09215   0.10979   0.11768   0.12213   0.13230
 Alpha virt. eigenvalues --    0.14249   0.15024   0.16061   0.16875   0.18517

 Mulliken charges:
               1
     1  C   -0.146085
     2  C   -0.201110
     3  C    0.107187
     4  C   -0.169333
     5  C   -0.137301
     6  C   -0.151997
     7  H    0.147093
     8  H    0.182419
     9  H    0.145632
    10  C   -0.206192
    11  H    0.147081
    12  C   -0.408065
    13  H    0.155058
    14  H    0.152215
    15  H    0.145538
    16  H    0.144351
    17  C    0.096916
    18  H    0.112579
    19  H    0.147781
    20  O   -0.263767
 Sum of Mulliken charges =  -0.00000

 Dipole moment (field-independent basis, Debye):
    X=              2.2440    Y=             -1.5802    Z=             -0.2267  Tot=              2.7539
 Quadrupole moment (field-independent basis, Debye-Ang):
   XX=            -64.4520   YY=            -56.8200   ZZ=            -60.7215
   XY=              5.6456   XZ=             -0.6783   YZ=              3.0373

 Normal termination of Gaussian 16 at Sat Apr  1 15:35:13 2023.
