 Gaussian 16, Revision C.01,
 Gaussian 16:  ES64L-G16RevC.01  3-Jul-2019

 ---------------------------------------------
 # opt m062x/def2tzvp scrf=(smd,solvent=water)
 ---------------------------------------------

 -------------------
 Title Card Required
 -------------------
 Symbolic Z-matrix:
 Charge =  0 Multiplicity = 1

 SCF Done:  E(RM062X) =  -424.172908614     A.U. after   13 cycles
 SCF Done:  E(RM062X) =  -424.173686710     A.U. after   11 cycles
 SCF Done:  E(RM062X) =  -424.173689295     A.U. after   10 cycles
 SCF Done:  E(RM062X) =  -424.173385283     A.U. after   12 cycles
 SCF Done:  E(RM062X) =  -424.173765952     A.U. after   10 cycles
 SCF Done:  E(RM062X) =  -424.173774078     A.U. after   10 cycles
 SCF Done:  E(RM062X) =  -424.173785659     A.U. after   11 cycles
 SCF Done:  E(RM062X) =  -424.173788904     A.U. after   10 cycles
 SCF Done:  E(RM062X) =  -424.173789405     A.U. after    9 cycles
 SCF Done:  E(RM062X) =  -424.173789391     A.U. after    7 cycles
 SCF Done:  E(RM062X) =  -424.173789632     A.U. after    9 cycles
 Optimization completed.
    -- Stationary point found.

                         Standard orientation:
 ---------------------------------------------------------------------
 Center     Atomic      Atomic             Coordinates (Angstroms)
 Number     Number       Type             X           Y           Z
 ---------------------------------------------------------------------
      1          6           0        1.880266    1.348396    0.371892
      2          6           0        0.542227    0.980047    0.358764
      3          6           0        0.164854   -0.307834   -0.020613
      4          6           0        1.149716   -1.217483   -0.393123
      5          6           0        2.490320   -0.851656   -0.377860
      6          6           0        2.858420    0.431518    0.004659
      7          1           0        2.159933    2.351890    0.666787
      8          1           0       -0.218569    1.697893    0.647129
      9          1           0        0.863459   -2.218692   -0.693285
     10          6           0       -1.300977   -0.695692   -0.014138
     11          1           0       -1.383374   -1.684118   -0.479301
     12          6           0       -1.904186   -0.716303    1.382951
     13          1           0       -2.953687   -1.008744    1.345792
     14          1           0       -1.840080    0.269950    1.844491
     15          1           0        3.902426    0.717348    0.015110
     16          1           0        3.247072   -1.570238   -0.666295
     17          6           0       -2.034728    0.236519   -0.940585
     18          1           0       -1.647971    0.277068   -1.972947
     19          1           0       -1.366430   -1.426480    2.010464
     20          8           0       -2.979782    0.918632   -0.618703
 ---------------------------------------------------------------------

 The electronic state is 1-A.
 Alpha  occ. eigenvalues --  -19.63770 -10.63284 -10.55351 -10.55002 -10.54089
 Alpha  occ. eigenvalues --  -10.54048 -10.54009 -10.53967 -10.53874 -10.52205
 Alpha  occ. eigenvalues --   -1.18486  -0.97085  -0.90442  -0.84429  -0.82330
 Alpha  occ. eigenvalues --   -0.75698  -0.69287  -0.68266  -0.63490  -0.59255
 Alpha  occ. eigenvalues --   -0.57082  -0.54147  -0.53428  -0.51002  -0.50169
 Alpha  occ. eigenvalues --   -0.48398  -0.46506  -0.45378  -0.44164  -0.43448
 Alpha  occ. eigenvalues --   -0.41923  -0.39569  -0.39034  -0.34171  -0.31223
 Alpha  occ. eigenvalues --   -0.30360
 Alpha virt. eigenvalues --    0.00220   0.01690   0.03626   0.08488   0.10174
 Alpha virt. eigenvalues --    0.10500   0.12234   0.13197   0.13757   0.14061
 Alpha virt. eigenvalues --    0.15454   0.15641   0.17436   0.17520   0.18997

 Mulliken charges:
               1
     1  C   -0.183112
     2  C   -0.228125
     3  C    0.071017
     4  C   -0.206121
     5  C   -0.171532
     6  C   -0.195778
     7  H    0.184649
     8  H    0.204214
     9  H    0.185785
    10  C   -0.147316
    11  H    0.183391
    12  C   -0.487665
    13  H    0.169985
    14  H    0.168733
    15  H    0.184678
    16  H    0.183656
    17  C    0.159623
    18  H    0.153829
    19  H    0.169503
    20  O   -0.399412
 Sum of Mulliken charges =  -0.00000

 Dipole moment (field-independent basis, Debye):
    X=              3.0799    Y=             -2.4588    Z=             -0.4140  Tot=              3.9627
 Quadrupole moment (field-independent basis, Debye-Ang):
   XX=            -67.1830   YY=            -55.4115   ZZ=            -60.3609
   XY=              7.4942   XZ=             -1.2813   YZ=              3.8322

 Normal termination of Gaussian 16 at Sat Apr  1 15:40:17 2023.
