 Gaussian 16, Revision C.01,
 Gaussian 16:  ES64L-G16RevC.01  3-Jul-2019

 --------------------
 # opt m062x/def2tzvp
 --------------------

 -------------------
 Title Card Required
 -------------------
 Symbolic Z-matrix:
 Charge = -1 Multiplicity = 1

 SCF Done:  E(RM062X) =  -516.007816142     A.U. after   21 cycles
 SCF Done:  E(RM062X) =  -516.011093551     A.U. after   17 cycles
 SCF Done:  E(RM062X) =  -516.012258764     A.U. after   15 cycles
 SCF Done:  E(RM062X) =  -516.012888130     A.U. after   17 cycles
 SCF Done:  E(RM062X) =  -516.013075358     A.U. after   15 cycles
 SCF Done:  E(RM062X) =  -516.013141293     A.U. after   23 cycles
 SCF Done:  E(RM062X) =  -516.013251371     A.U. after   18 cycles
 SCF Done:  E(RM062X) =  -516.013313100     A.U. after   16 cycles
 SCF Done:  E(RM062X) =  -516.013352382     A.U. after   15 cycles
 SCF Done:  E(RM062X) =  -516.013380834     A.U. after   15 cycles
 SCF Done:  E(RM062X) =  -516.013401405     A.U. after   14 cycles
 SCF Done:  E(RM062X) =  -516.013402342     A.U. after   11 cycles
 SCF Done:  E(RM062X) =  -516.013406489     A.U. after   13 cycles
 SCF Done:  E(RM062X) =  -516.013408466     A.U. after   15 cycles
 SCF Done:  E(RM062X) =  -516.013409207     A.U. after   14 cycles
 SCF Done:  E(RM062X) =  -516.013410397     A.U. after   15 cycles
 SCF Done:  E(RM062X) =  -516.013413117     A.U. after   13 cycles
 SCF Done:  E(RM062X) =  -516.013413451     A.U. after   11 cycles
 SCF Done:  E(RM062X) =  -516.013413608     A.U. after   10 cycles
 SCF Done:  E(RM062X) =  -516.013413628     A.U. after    7 cycles
 Optimization completed.
    -- Stationary point found.

                         Standard orientation:
 ---------------------------------------------------------------------
 Center     Atomic      Atomic             Coordinates (Angstroms)
 Number     Number       Type             X           Y           Z
 ---------------------------------------------------------------------
      1          6           0        0.702860    1.491649    0.095399
      2          6           0       -0.569363    0.951306    0.211840
      3          6           0       -0.745784   -0.437659    0.220255
      4          6           0        0.383323   -1.249956    0.102651
      5          6           0        1.654193   -0.708353   -0.006930
      6          6           0        1.812601    0.669137   -0.005493
      7          1           0        0.840695    2.570025    0.080100
      8          1           0       -1.480440    1.551121    0.258795
      9          1           0        0.286942   -2.329867    0.089584
     10          8           0        2.751309   -1.526699   -0.119847
     11          1           0        3.519481   -0.952514   -0.216625
     12          8           0        3.116361    1.136059   -0.110156
     13          1           0        3.084734    2.088440   -0.229026
     14          6           0       -2.125839   -1.030826    0.310983
     15          1           0       -2.070006   -2.089648    0.020181
     16          1           0       -2.474310   -0.999901    1.349524
     17          6           0       -3.212496   -0.269691   -0.534532
     18          1           0       -4.034980   -1.023937   -0.639409
     19          1           0       -2.788499   -0.184036   -1.550562
     20          7           0       -3.592665    1.018443   -0.072571
     21          1           0       -4.073289    0.872688    0.820431
 ---------------------------------------------------------------------

 The electronic state is 1-A.
 Alpha  occ. eigenvalues --  -19.55673 -19.53767 -14.43472 -10.47395 -10.47246
 Alpha  occ. eigenvalues --  -10.41495 -10.40440 -10.40140 -10.38267 -10.36382
 Alpha  occ. eigenvalues --  -10.35679  -1.08842  -1.05780  -0.82692  -0.74031
 Alpha  occ. eigenvalues --   -0.71219  -0.69463  -0.62697  -0.58292  -0.55752
 Alpha  occ. eigenvalues --   -0.50841  -0.48601  -0.46512  -0.42079  -0.40607
 Alpha  occ. eigenvalues --   -0.39635  -0.37713  -0.36300  -0.34627  -0.34415
 Alpha  occ. eigenvalues --   -0.31338  -0.29752  -0.27995  -0.26792  -0.25012
 Alpha  occ. eigenvalues --   -0.24020  -0.20712  -0.16678  -0.13572  -0.07996
 Alpha  occ. eigenvalues --   -0.00897
 Alpha virt. eigenvalues --    0.14576   0.15639   0.17737   0.19095   0.21862
 Alpha virt. eigenvalues --    0.23019   0.24702   0.26596   0.26825   0.28724
 Alpha virt. eigenvalues --    0.30355   0.31516   0.33048   0.33461   0.34076

 Mulliken charges:
               1
     1  C   -0.208637
     2  C   -0.219263
     3  C    0.136202
     4  C   -0.256421
     5  C    0.162595
     6  C    0.202599
     7  H    0.110702
     8  H    0.144789
     9  H    0.116075
    10  O   -0.467598
    11  H    0.325182
    12  O   -0.517350
    13  H    0.316799
    14  C   -0.241249
    15  H    0.043561
    16  H    0.084229
    17  C   -0.094191
    18  H    0.006377
    19  H    0.061798
    20  N   -0.830295
    21  H    0.124097
 Sum of Mulliken charges =  -1.00000

 Dipole moment (field-independent basis, Debye):
    X=             11.6629    Y=             -0.9093    Z=              0.8463  Tot=             11.7288
 Quadrupole moment (field-independent basis, Debye-Ang):
   XX=           -120.2861   YY=            -74.4908   ZZ=            -72.9055
   XY=             19.8723   XZ=             -6.8561   YZ=              0.2775

 Normal termination of Gaussian 16 at Sat Apr  8 01:46:58 2023.
