 Gaussian 16, Revision C.01,
 Gaussian 16:  ES64L-G16RevC.01  3-Jul-2019

 ---------------------------------------------
 # opt m062x/def2tzvp scrf=(smd,solvent=water)
 ---------------------------------------------

 -------------------
 Title Card Required
 -------------------
 Symbolic Z-matrix:
 Charge = -1 Multiplicity = 1

 SCF Done:  E(RM062X) =  -516.118966194     A.U. after   15 cycles
 SCF Done:  E(RM062X) =  -516.127532568     A.U. after   13 cycles
 SCF Done:  E(RM062X) =  -516.130963879     A.U. after   13 cycles
 SCF Done:  E(RM062X) =  -516.131744510     A.U. after   13 cycles
 SCF Done:  E(RM062X) =  -516.132041157     A.U. after   12 cycles
 SCF Done:  E(RM062X) =  -516.132239721     A.U. after   12 cycles
 SCF Done:  E(RM062X) =  -516.132332835     A.U. after   12 cycles
 SCF Done:  E(RM062X) =  -516.132395676     A.U. after   10 cycles
 SCF Done:  E(RM062X) =  -516.132430207     A.U. after   11 cycles
 SCF Done:  E(RM062X) =  -516.132434710     A.U. after   10 cycles
 SCF Done:  E(RM062X) =  -516.132434569     A.U. after   10 cycles
 SCF Done:  E(RM062X) =  -516.132435271     A.U. after    9 cycles
 SCF Done:  E(RM062X) =  -516.132435598     A.U. after    8 cycles
 Optimization completed.
    -- Stationary point found.

                         Standard orientation:
 ---------------------------------------------------------------------
 Center     Atomic      Atomic             Coordinates (Angstroms)
 Number     Number       Type             X           Y           Z
 ---------------------------------------------------------------------
      1          6           0        1.046811    1.583838    0.142288
      2          6           0       -0.285488    1.363217    0.483063
      3          6           0       -0.793790    0.073143    0.600053
      4          6           0        0.069757   -0.998647    0.359568
      5          6           0        1.393234   -0.788149    0.020574
      6          6           0        1.888145    0.512239   -0.089704
      7          1           0        1.441577    2.589862    0.056182
      8          1           0       -0.934385    2.211493    0.664498
      9          1           0       -0.285886   -2.020161    0.441289
     10          8           0        2.214954   -1.864542   -0.200575
     11          1           0        3.098065   -1.541914   -0.428858
     12          8           0        3.216405    0.629199   -0.424060
     13          1           0        3.456962    1.561952   -0.497493
     14          6           0       -2.237422   -0.190977    0.917456
     15          1           0       -2.298840   -0.994427    1.660106
     16          1           0       -2.683411    0.702960    1.363935
     17          6           0       -3.087210   -0.588347   -0.319162
     18          1           0       -4.033272   -0.973605    0.112769
     19          1           0       -2.601838   -1.475540   -0.750766
     20          7           0       -3.258633    0.407004   -1.344537
     21          1           0       -3.763650    1.175192   -0.897643
 ---------------------------------------------------------------------

 The electronic state is 1-A.
 Alpha  occ. eigenvalues --  -19.65463 -19.65129 -14.61757 -10.59637 -10.59519
 Alpha  occ. eigenvalues --  -10.53531 -10.53372 -10.52901 -10.52665 -10.51561
 Alpha  occ. eigenvalues --  -10.50618  -1.19373  -1.16578  -0.95549  -0.89181
 Alpha  occ. eigenvalues --   -0.84332  -0.83476  -0.76469  -0.70934  -0.68514
 Alpha  occ. eigenvalues --   -0.64148  -0.61934  -0.59066  -0.55233  -0.52359
 Alpha  occ. eigenvalues --   -0.51532  -0.49785  -0.48641  -0.47317  -0.45612
 Alpha  occ. eigenvalues --   -0.45333  -0.44645  -0.42901  -0.40276  -0.38880
 Alpha  occ. eigenvalues --   -0.38169  -0.36720  -0.29341  -0.27347  -0.25643
 Alpha  occ. eigenvalues --   -0.19496
 Alpha virt. eigenvalues --    0.02929   0.04822   0.07682   0.09198   0.10402
 Alpha virt. eigenvalues --    0.11303   0.12687   0.13756   0.14592   0.15544
 Alpha virt. eigenvalues --    0.17410   0.18146   0.18806   0.20289   0.21301

 Mulliken charges:
               1
     1  C   -0.216210
     2  C   -0.428661
     3  C    0.254990
     4  C   -0.293585
     5  C    0.199591
     6  C    0.169494
     7  H    0.191923
     8  H    0.182702
     9  H    0.187711
    10  O   -0.512072
    11  H    0.385353
    12  O   -0.538926
    13  H    0.392736
    14  C   -0.340566
    15  H    0.134049
    16  H    0.154639
    17  C   -0.182088
    18  H    0.080889
    19  H    0.111256
    20  N   -1.112370
    21  H    0.179144
 Sum of Mulliken charges =  -1.00000

 Dipole moment (field-independent basis, Debye):
    X=             14.7797    Y=              1.9523    Z=              6.8890  Tot=             16.4228
 Quadrupole moment (field-independent basis, Debye-Ang):
   XX=           -104.5544   YY=            -65.0063   ZZ=            -85.3243
   XY=             11.1217   XZ=            -26.7142   YZ=              2.1420

 Normal termination of Gaussian 16 at Sat Apr  8 01:28:51 2023.
