 Gaussian 16, Revision C.01,
 Gaussian 16:  ES64L-G16RevC.01  3-Jul-2019

 ---------------------------------------------
 # opt m062x/def2tzvp scrf=(smd,solvent=water)
 ---------------------------------------------

 -------------------
 Title Card Required
 -------------------
 Symbolic Z-matrix:
 Charge =  0 Multiplicity = 1

 SCF Done:  E(RM062X) =  -940.865067188     A.U. after   13 cycles
 SCF Done:  E(RM062X) =  -940.868266827     A.U. after   11 cycles
 SCF Done:  E(RM062X) =  -940.869147061     A.U. after   10 cycles
 SCF Done:  E(RM062X) =  -940.869676243     A.U. after   10 cycles
 SCF Done:  E(RM062X) =  -940.870262501     A.U. after   10 cycles
 SCF Done:  E(RM062X) =  -940.869252267     A.U. after   14 cycles
 SCF Done:  E(RM062X) =  -940.871285131     A.U. after   10 cycles
 SCF Done:  E(RM062X) =  -940.871554812     A.U. after   10 cycles
 SCF Done:  E(RM062X) =  -940.871851189     A.U. after   10 cycles
 SCF Done:  E(RM062X) =  -940.871914196     A.U. after    9 cycles
 SCF Done:  E(RM062X) =  -940.871957579     A.U. after    9 cycles
 SCF Done:  E(RM062X) =  -940.871962787     A.U. after    8 cycles
 SCF Done:  E(RM062X) =  -940.871966985     A.U. after    8 cycles
 SCF Done:  E(RM062X) =  -940.871968020     A.U. after    7 cycles
 SCF Done:  E(RM062X) =  -940.871968485     A.U. after    8 cycles
 SCF Done:  E(RM062X) =  -940.871968749     A.U. after    7 cycles
 SCF Done:  E(RM062X) =  -940.871968774     A.U. after    7 cycles
 SCF Done:  E(RM062X) =  -940.871968668     A.U. after    7 cycles
 SCF Done:  E(RM062X) =  -940.871968650     A.U. after    6 cycles
 SCF Done:  E(RM062X) =  -940.871968604     A.U. after    6 cycles
 Optimization completed.
    -- Stationary point found.

                         Standard orientation:
 ---------------------------------------------------------------------
 Center     Atomic      Atomic             Coordinates (Angstroms)
 Number     Number       Type             X           Y           Z
 ---------------------------------------------------------------------
      1          6           0       -4.689278   -0.454809    1.388323
      2          6           0       -3.600806   -1.193572    0.934560
      3          6           0       -2.978904   -0.878934   -0.267943
      4          6           0       -3.464287    0.197068   -1.011740
      5          6           0       -4.545029    0.935332   -0.566122
      6          6           0       -5.163247    0.607947    0.641866
      7          8           0       -5.004047    1.983618   -1.319218
      8          8           0       -6.231271    1.388699    1.004828
      9          6           0       -1.773928   -1.644249   -0.744251
     10          6           0       -0.478683   -0.930648   -0.376291
     11          7           0        0.678000   -1.686588   -0.853011
     12          1           0       -5.180412   -0.700796    2.322792
     13          1           0       -3.238005   -2.026509    1.524656
     14          1           0       -3.003425    0.468110   -1.955134
     15          1           0       -5.766953    2.379534   -0.874589
     16          1           0       -6.592274    1.083402    1.847481
     17          1           0       -1.771373   -2.642050   -0.301570
     18          1           0       -1.813976   -1.762591   -1.830468
     19          1           0       -0.423137   -0.831915    0.710220
     20          1           0       -0.498991    0.086509   -0.793665
     21          1           0        0.500021   -1.945804   -1.820438
     22          6           0        1.896527   -0.902876   -0.861870
     23          1           0        1.793931   -0.018803   -1.509575
     24          8           0        2.886081   -1.755234   -1.414909
     25          1           0        3.662728   -1.220371   -1.623990
     26          6           0        2.289485   -0.404732    0.541955
     27          1           0        1.509815    0.298378    0.845714
     28          6           0        2.355775   -1.538912    1.556817
     29          1           0        2.757903   -1.179700    2.505044
     30          1           0        1.360952   -1.943544    1.740936
     31          1           0        2.989269   -2.355333    1.207751
     32          6           0        3.571312    0.392362    0.425703
     33          6           0        3.514368    1.727544    0.023775
     34          6           0        4.822845   -0.175915    0.657664
     35          6           0        4.671043    2.477004   -0.138572
     36          1           0        2.546537    2.182815   -0.157059
     37          6           0        5.984509    0.571490    0.495700
     38          1           0        4.897287   -1.209748    0.971517
     39          6           0        5.913253    1.899344    0.097589
     40          1           0        4.603243    3.513264   -0.445386
     41          1           0        6.947272    0.112595    0.683343
     42          1           0        6.817774    2.481350   -0.025094
 ---------------------------------------------------------------------

 The electronic state is 1-A.
 Alpha  occ. eigenvalues --  -19.65775 -19.65430 -19.62899 -14.73124 -10.61000
 Alpha  occ. eigenvalues --  -10.60102 -10.60018 -10.55291 -10.54560 -10.54338
 Alpha  occ. eigenvalues --  -10.53967 -10.53789 -10.53774 -10.53666 -10.53600
 Alpha  occ. eigenvalues --  -10.53590 -10.53574 -10.53539 -10.53335 -10.52949
 Alpha  occ. eigenvalues --  -10.51449  -1.19769  -1.16949  -1.15815  -1.01080
 Alpha  occ. eigenvalues --   -0.96506  -0.96155  -0.89429  -0.87445  -0.84182
 Alpha  occ. eigenvalues --   -0.84103  -0.81990  -0.80400  -0.75173  -0.72664
 Alpha  occ. eigenvalues --   -0.70295  -0.68740  -0.68426  -0.68128  -0.63831
 Alpha  occ. eigenvalues --   -0.62455  -0.60426  -0.59292  -0.58907  -0.56398
 Alpha  occ. eigenvalues --   -0.55855  -0.54813  -0.52895  -0.52055  -0.51967
 Alpha  occ. eigenvalues --   -0.51400  -0.51000  -0.49584  -0.49028  -0.48648
 Alpha  occ. eigenvalues --   -0.47746  -0.46870  -0.46392  -0.45851  -0.45169
 Alpha  occ. eigenvalues --   -0.44222  -0.43679  -0.43175  -0.42619  -0.41414
 Alpha  occ. eigenvalues --   -0.40846  -0.40329  -0.39572  -0.39152  -0.38579
 Alpha  occ. eigenvalues --   -0.38042  -0.35685  -0.31003  -0.30407  -0.29900
 Alpha  occ. eigenvalues --   -0.29483  -0.26854
 Alpha virt. eigenvalues --    0.02091   0.02307   0.02519   0.04196   0.06944
 Alpha virt. eigenvalues --    0.07537   0.08355   0.08953   0.09263   0.10294
 Alpha virt. eigenvalues --    0.10495   0.11637   0.12218   0.13047   0.13364

 Mulliken charges:
               1
     1  C   -0.227383
     2  C   -0.258927
     3  C    0.095691
     4  C   -0.289881
     5  C    0.199058
     6  C    0.183074
     7  O   -0.507617
     8  O   -0.534229
     9  C   -0.383862
    10  C   -0.250976
    11  N   -0.394746
    12  H    0.194431
    13  H    0.188442
    14  H    0.190716
    15  H    0.386629
    16  H    0.394115
    17  H    0.175708
    18  H    0.188772
    19  H    0.177410
    20  H    0.169023
    21  H    0.248019
    22  C    0.015489
    23  H    0.185755
    24  O   -0.554539
    25  H    0.379221
    26  C   -0.130384
    27  H    0.198128
    28  C   -0.515090
    29  H    0.180425
    30  H    0.170014
    31  H    0.163522
    32  C    0.090877
    33  C   -0.242969
    34  C   -0.264070
    35  C   -0.181868
    36  H    0.190974
    37  C   -0.183772
    38  H    0.206785
    39  C   -0.199570
    40  H    0.182417
    41  H    0.182337
    42  H    0.182851
 Sum of Mulliken charges =  -0.00000

 Dipole moment (field-independent basis, Debye):
    X=             -1.8113    Y=              2.0858    Z=              2.3712  Tot=              3.6405
 Quadrupole moment (field-independent basis, Debye-Ang):
   XX=           -100.4144   YY=           -132.2775   ZZ=           -120.5383
   XY=              7.7792   XZ=            -20.5691   YZ=             -3.1865

 Normal termination of Gaussian 16 at Fri Apr 21 12:58:36 2023.
