 Gaussian 16, Revision C.01,
 Gaussian 16:  ES64L-G16RevC.01  3-Jul-2019

 --------------------
 # opt m062x/def2tzvp
 --------------------

 -------------------
 Title Card Required
 -------------------
 Symbolic Z-matrix:
 Charge =  0 Multiplicity = 1

 SCF Done:  E(RM062X) =  -940.841173871     A.U. after   22 cycles
 SCF Done:  E(RM062X) =  -940.842734365     A.U. after   18 cycles
 SCF Done:  E(RM062X) =  -940.843089680     A.U. after   15 cycles
 SCF Done:  E(RM062X) =  -940.843302837     A.U. after   19 cycles
 SCF Done:  E(RM062X) =  -940.843445809     A.U. after   18 cycles
 SCF Done:  E(RM062X) =  -940.843636188     A.U. after   19 cycles
 SCF Done:  E(RM062X) =  -940.843916983     A.U. after   19 cycles
 SCF Done:  E(RM062X) =  -940.844001522     A.U. after   16 cycles
 SCF Done:  E(RM062X) =  -940.844026220     A.U. after   17 cycles
 SCF Done:  E(RM062X) =  -940.844108676     A.U. after   21 cycles
 SCF Done:  E(RM062X) =  -940.844121325     A.U. after   18 cycles
 SCF Done:  E(RM062X) =  -940.844137468     A.U. after   14 cycles
 SCF Done:  E(RM062X) =  -940.844149798     A.U. after   14 cycles
 SCF Done:  E(RM062X) =  -940.844151318     A.U. after   19 cycles
 SCF Done:  E(RM062X) =  -940.844151217     A.U. after    7 cycles
 SCF Done:  E(RM062X) =  -940.844151406     A.U. after    7 cycles
 Optimization completed.
    -- Stationary point found.

                         Standard orientation:
 ---------------------------------------------------------------------
 Center     Atomic      Atomic             Coordinates (Angstroms)
 Number     Number       Type             X           Y           Z
 ---------------------------------------------------------------------
      1          6           0       -4.624686   -0.307442    1.507374
      2          6           0       -3.519218   -1.034973    1.079140
      3          6           0       -3.002650   -0.852971   -0.196726
      4          6           0       -3.610208    0.074169   -1.042092
      5          6           0       -4.709115    0.801853   -0.625610
      6          6           0       -5.217154    0.606979    0.660021
      7          8           0       -5.290571    1.695808   -1.463127
      8          8           0       -6.309879    1.370622    0.979507
      9          6           0       -1.775512   -1.598756   -0.646402
     10          6           0       -0.504158   -0.787653   -0.413399
     11          7           0        0.665214   -1.553050   -0.805039
     12          1           0       -5.028473   -0.456060    2.502760
     13          1           0       -3.060978   -1.753464    1.747387
     14          1           0       -3.237361    0.239573   -2.046057
     15          1           0       -6.040191    2.097061   -1.006323
     16          1           0       -6.606187    1.169356    1.871412
     17          1           0       -1.686327   -2.543952   -0.107955
     18          1           0       -1.855762   -1.838285   -1.710654
     19          1           0       -0.436032   -0.548275    0.651859
     20          1           0       -0.582787    0.172560   -0.949327
     21          1           0        0.528683   -1.973546   -1.718100
     22          6           0        1.890380   -0.793692   -0.850019
     23          1           0        1.777914    0.122366   -1.459860
     24          8           0        2.829153   -1.646792   -1.462311
     25          1           0        3.651374   -1.157391   -1.576299
     26          6           0        2.344564   -0.357890    0.561148
     27          1           0        1.603979    0.362575    0.920684
     28          6           0        2.390819   -1.548197    1.511628
     29          1           0        2.857059   -1.270147    2.457332
     30          1           0        1.383739   -1.913069    1.706711
     31          1           0        2.949300   -2.373684    1.070158
     32          6           0        3.654109    0.387300    0.430232
     33          6           0        3.649955    1.741809    0.097855
     34          6           0        4.884337   -0.253066    0.568932
     35          6           0        4.834326    2.438807   -0.087432
     36          1           0        2.700913    2.255960   -0.008946
     37          6           0        6.073599    0.441388    0.382960
     38          1           0        4.915221   -1.303307    0.830220
     39          6           0        6.053157    1.788703    0.054492
     40          1           0        4.806357    3.491441   -0.338414
     41          1           0        7.018604   -0.073736    0.499452
     42          1           0        6.979567    2.330058   -0.085925
 ---------------------------------------------------------------------

 The electronic state is 1-A.
 Alpha  occ. eigenvalues --  -19.67111 -19.65207 -19.62315 -14.72925 -10.61240
 Alpha  occ. eigenvalues --  -10.60406 -10.60115 -10.56086 -10.54996 -10.54754
 Alpha  occ. eigenvalues --  -10.54621 -10.54403 -10.54386 -10.54212 -10.54178
 Alpha  occ. eigenvalues --  -10.54132 -10.54118 -10.53799 -10.53787 -10.53706
 Alpha  occ. eigenvalues --  -10.51533  -1.20886  -1.17682  -1.15727  -1.01294
 Alpha  occ. eigenvalues --   -0.96984  -0.96469  -0.89844  -0.87968  -0.84672
 Alpha  occ. eigenvalues --   -0.84519  -0.82477  -0.80857  -0.75435  -0.73379
 Alpha  occ. eigenvalues --   -0.70996  -0.69179  -0.69068  -0.68730  -0.64388
 Alpha  occ. eigenvalues --   -0.63447  -0.61114  -0.59708  -0.58956  -0.56954
 Alpha  occ. eigenvalues --   -0.56414  -0.55197  -0.53559  -0.52652  -0.52428
 Alpha  occ. eigenvalues --   -0.52066  -0.51686  -0.50209  -0.49754  -0.49298
 Alpha  occ. eigenvalues --   -0.48420  -0.47160  -0.46630  -0.46183  -0.45081
 Alpha  occ. eigenvalues --   -0.44522  -0.43928  -0.43609  -0.42844  -0.42048
 Alpha  occ. eigenvalues --   -0.41358  -0.40625  -0.40214  -0.39527  -0.39086
 Alpha  occ. eigenvalues --   -0.38378  -0.35345  -0.31291  -0.30593  -0.29957
 Alpha  occ. eigenvalues --   -0.29040  -0.26888
 Alpha virt. eigenvalues --    0.01721   0.01969   0.02363   0.04046   0.04618
 Alpha virt. eigenvalues --    0.06135   0.07437   0.07933   0.08218   0.08904
 Alpha virt. eigenvalues --    0.08954   0.10726   0.11232   0.11954   0.12141

 Mulliken charges:
               1
     1  C   -0.174909
     2  C   -0.236899
     3  C    0.165126
     4  C   -0.249451
     5  C    0.171843
     6  C    0.189303
     7  O   -0.433506
     8  O   -0.486069
     9  C   -0.432646
    10  C   -0.199964
    11  N   -0.349412
    12  H    0.138816
    13  H    0.151140
    14  H    0.156858
    15  H    0.342308
    16  H    0.331890
    17  H    0.174210
    18  H    0.167105
    19  H    0.159640
    20  H    0.142021
    21  H    0.213734
    22  C    0.057014
    23  H    0.156427
    24  O   -0.467390
    25  H    0.329734
    26  C   -0.201544
    27  H    0.173820
    28  C   -0.434880
    29  H    0.162525
    30  H    0.151980
    31  H    0.154906
    32  C    0.103787
    33  C   -0.200370
    34  C   -0.270096
    35  C   -0.142354
    36  H    0.155040
    37  C   -0.126651
    38  H    0.179516
    39  C   -0.154143
    40  H    0.143429
    41  H    0.144807
    42  H    0.143303
 Sum of Mulliken charges =  -0.00000

 Dipole moment (field-independent basis, Debye):
    X=             -0.9766    Y=              1.3553    Z=              2.0124  Tot=              2.6154
 Quadrupole moment (field-independent basis, Debye-Ang):
   XX=           -106.0659   YY=           -128.5497   ZZ=           -122.9432
   XY=              2.5991   XZ=            -15.2711   YZ=             -1.3633

 Normal termination of Gaussian 16 at Fri Apr 21 12:25:57 2023.
