 Gaussian 16, Revision C.01,
 Gaussian 16:  ES64L-G16RevC.01  3-Jul-2019

 --------------------
 # opt m062x/def2tzvp
 --------------------

 -------------------
 Title Card Required
 -------------------
 Symbolic Z-matrix:
 Charge =  0 Multiplicity = 1

 SCF Done:  E(RM062X) =  -516.650851999     A.U. after   16 cycles
 SCF Done:  E(RM062X) =  -516.652354169     A.U. after   12 cycles
 SCF Done:  E(RM062X) =  -516.652790565     A.U. after   12 cycles
 SCF Done:  E(RM062X) =  -516.652877790     A.U. after   11 cycles
 SCF Done:  E(RM062X) =  -516.652890896     A.U. after    9 cycles
 SCF Done:  E(RM062X) =  -516.652897298     A.U. after   11 cycles
 SCF Done:  E(RM062X) =  -516.652899481     A.U. after    9 cycles
 SCF Done:  E(RM062X) =  -516.652905006     A.U. after    9 cycles
 SCF Done:  E(RM062X) =  -516.652941324     A.U. after   13 cycles
 SCF Done:  E(RM062X) =  -516.653000542     A.U. after   12 cycles
 SCF Done:  E(RM062X) =  -516.655167033     A.U. after   12 cycles
 SCF Done:  E(RM062X) =  -516.656990805     A.U. after   15 cycles
 SCF Done:  E(RM062X) =  -516.657807229     A.U. after   13 cycles
 SCF Done:  E(RM062X) =  -516.658064471     A.U. after   12 cycles
 SCF Done:  E(RM062X) =  -516.658004017     A.U. after   14 cycles
 SCF Done:  E(RM062X) =  -516.658237407     A.U. after   12 cycles
 SCF Done:  E(RM062X) =  -516.658244915     A.U. after    9 cycles
 SCF Done:  E(RM062X) =  -516.658246288     A.U. after    8 cycles
 SCF Done:  E(RM062X) =  -516.658246667     A.U. after    8 cycles
 SCF Done:  E(RM062X) =  -516.658246755     A.U. after    7 cycles
 Optimization completed.
    -- Stationary point found.

                         Standard orientation:
 ---------------------------------------------------------------------
 Center     Atomic      Atomic             Coordinates (Angstroms)
 Number     Number       Type             X           Y           Z
 ---------------------------------------------------------------------
      1          6           0        0.998141   -1.561443   -0.240746
      2          6           0       -0.320552   -1.279224   -0.585907
      3          6           0       -0.774342    0.032616   -0.634678
      4          6           0        0.115692    1.062870   -0.329447
      5          6           0        1.427089    0.792139    0.011583
      6          6           0        1.868348   -0.532196    0.054927
      7          1           0        1.349592   -2.586848   -0.206725
      8          1           0       -1.001831   -2.089305   -0.813031
      9          1           0       -0.201421    2.098737   -0.360614
     10          8           0        2.280464    1.806664    0.297788
     11          1           0        3.145293    1.428095    0.498627
     12          8           0        3.184864   -0.699553    0.399831
     13          1           0        3.416390   -1.632191    0.380355
     14          6           0       -2.213171    0.347136   -0.950700
     15          1           0       -2.267632    1.239197   -1.578415
     16          1           0       -2.658810   -0.481607   -1.503161
     17          6           0       -3.036683    0.581410    0.315596
     18          1           0       -4.062947    0.821792    0.031382
     19          1           0       -2.629416    1.454317    0.844132
     20          7           0       -3.062668   -0.630506    1.126836
     21          1           0       -2.125707   -0.855839    1.443332
     22          1           0       -3.634586   -0.499542    1.951543
 ---------------------------------------------------------------------

 The electronic state is 1-A.
 Alpha  occ. eigenvalues --  -19.66980 -19.65069 -14.71896 -10.60247 -10.59963
 Alpha  occ. eigenvalues --  -10.55476 -10.54564 -10.54261 -10.53493 -10.53460
 Alpha  occ. eigenvalues --  -10.53078  -1.20744  -1.17539  -0.98851  -0.95909
 Alpha  occ. eigenvalues --   -0.87117  -0.84253  -0.80176  -0.73070  -0.69833
 Alpha  occ. eigenvalues --   -0.67803  -0.63233  -0.60428  -0.56593  -0.56351
 Alpha  occ. eigenvalues --   -0.53227  -0.52923  -0.52156  -0.50177  -0.48897
 Alpha  occ. eigenvalues --   -0.47251  -0.46095  -0.45118  -0.44190  -0.42394
 Alpha  occ. eigenvalues --   -0.40732  -0.39451  -0.39075  -0.30526  -0.29619
 Alpha  occ. eigenvalues --   -0.26716
 Alpha virt. eigenvalues --    0.02441   0.04200   0.04731   0.07008   0.08686
 Alpha virt. eigenvalues --    0.09513   0.10534   0.11615   0.12241   0.13954
 Alpha virt. eigenvalues --    0.14593   0.17101   0.17151   0.18183   0.19300

 Mulliken charges:
               1
     1  C   -0.159876
     2  C   -0.259430
     3  C    0.078990
     4  C   -0.222626
     5  C    0.167091
     6  C    0.189162
     7  H    0.140296
     8  H    0.161595
     9  H    0.156570
    10  O   -0.433980
    11  H    0.342066
    12  O   -0.486597
    13  H    0.331636
    14  C   -0.337723
    15  H    0.152506
    16  H    0.151279
    17  C   -0.140986
    18  H    0.126305
    19  H    0.133444
    20  N   -0.559072
    21  H    0.245353
    22  H    0.223998
 Sum of Mulliken charges =  -0.00000

 Dipole moment (field-independent basis, Debye):
    X=              0.9517    Y=             -1.3981    Z=              0.7251  Tot=              1.8402
 Quadrupole moment (field-independent basis, Debye-Ang):
   XX=            -59.2983   YY=            -63.6064   ZZ=            -65.8930
   XY=            -10.6977   XZ=             -0.0206   YZ=             -0.5589

 Normal termination of Gaussian 16 at Sat Apr  1 17:14:25 2023.
