 Gaussian 16, Revision C.01,
 Gaussian 16:  ES64L-G16RevC.01  3-Jul-2019

 ---------------------------------------------
 # opt m062x/def2tzvp scrf=(smd,solvent=water)
 ---------------------------------------------

 -------------------
 Title Card Required
 -------------------
 Symbolic Z-matrix:
 Charge =  0 Multiplicity = 1

 SCF Done:  E(RM062X) =  -516.672573384     A.U. after   13 cycles
 SCF Done:  E(RM062X) =  -516.673437925     A.U. after   11 cycles
 SCF Done:  E(RM062X) =  -516.673735479     A.U. after   10 cycles
 SCF Done:  E(RM062X) =  -516.673770299     A.U. after    9 cycles
 SCF Done:  E(RM062X) =  -516.673784440     A.U. after    8 cycles
 SCF Done:  E(RM062X) =  -516.673800923     A.U. after   10 cycles
 SCF Done:  E(RM062X) =  -516.673818096     A.U. after   10 cycles
 SCF Done:  E(RM062X) =  -516.673825085     A.U. after   10 cycles
 SCF Done:  E(RM062X) =  -516.673842387     A.U. after   10 cycles
 SCF Done:  E(RM062X) =  -516.673891282     A.U. after   11 cycles
 SCF Done:  E(RM062X) =  -516.674038161     A.U. after   10 cycles
 SCF Done:  E(RM062X) =  -516.674055541     A.U. after   10 cycles
 SCF Done:  E(RM062X) =  -516.674056192     A.U. after    8 cycles
 SCF Done:  E(RM062X) =  -516.674058941     A.U. after   10 cycles
 SCF Done:  E(RM062X) =  -516.674058032     A.U. after    8 cycles
 SCF Done:  E(RM062X) =  -516.674057106     A.U. after   10 cycles
 SCF Done:  E(RM062X) =  -516.674060560     A.U. after    9 cycles
 SCF Done:  E(RM062X) =  -516.674060483     A.U. after    9 cycles
 SCF Done:  E(RM062X) =  -516.674060753     A.U. after    7 cycles
 SCF Done:  E(RM062X) =  -516.674060922     A.U. after    7 cycles
 Optimization completed.
    -- Stationary point found.

                         Standard orientation:
 ---------------------------------------------------------------------
 Center     Atomic      Atomic             Coordinates (Angstroms)
 Number     Number       Type             X           Y           Z
 ---------------------------------------------------------------------
      1          6           0        1.028696   -1.583528   -0.215407
      2          6           0       -0.293044   -1.341220   -0.574483
      3          6           0       -0.779576   -0.039438   -0.648830
      4          6           0        0.085304    1.018895   -0.372783
      5          6           0        1.404879    0.781618   -0.026582
      6          6           0        1.875641   -0.529425    0.066083
      7          1           0        1.414992   -2.593019   -0.149226
      8          1           0       -0.951623   -2.173017   -0.792540
      9          1           0       -0.260559    2.044735   -0.434954
     10          8           0        2.229753    1.843299    0.222436
     11          1           0        3.138036    1.523013    0.323003
     12          8           0        3.207458   -0.755334    0.380888
     13          1           0        3.380884   -0.482456    1.293493
     14          6           0       -2.225036    0.238874   -0.969262
     15          1           0       -2.293152    1.071406   -1.672431
     16          1           0       -2.670928   -0.638314   -1.442064
     17          6           0       -3.026297    0.595902    0.278319
     18          1           0       -4.052411    0.822080   -0.012970
     19          1           0       -2.605102    1.508076    0.716519
     20          7           0       -3.052167   -0.524298    1.220876
     21          1           0       -2.101138   -0.721770    1.519797
     22          1           0       -3.554920   -0.244444    2.056323
 ---------------------------------------------------------------------

 The electronic state is 1-A.
 Alpha  occ. eigenvalues --  -19.65603 -19.65068 -14.71924 -10.60315 -10.59568
 Alpha  occ. eigenvalues --  -10.54924 -10.54566 -10.54012 -10.53548 -10.53291
 Alpha  occ. eigenvalues --  -10.52688  -1.19413  -1.16427  -0.98642  -0.95871
 Alpha  occ. eigenvalues --   -0.86911  -0.84165  -0.79723  -0.71226  -0.69853
 Alpha  occ. eigenvalues --   -0.67226  -0.63507  -0.58590  -0.57234  -0.55918
 Alpha  occ. eigenvalues --   -0.53655  -0.52569  -0.50905  -0.49636  -0.48125
 Alpha  occ. eigenvalues --   -0.47473  -0.45334  -0.44354  -0.43962  -0.41256
 Alpha  occ. eigenvalues --   -0.39902  -0.39189  -0.38469  -0.31086  -0.29989
 Alpha  occ. eigenvalues --   -0.27796
 Alpha virt. eigenvalues --    0.02170   0.03746   0.06657   0.07745   0.10118
 Alpha virt. eigenvalues --    0.10653   0.12151   0.12516   0.13474   0.14590
 Alpha virt. eigenvalues --    0.15197   0.17523   0.17800   0.18143   0.19352

 Mulliken charges:
               1
     1  C   -0.216575
     2  C   -0.263755
     3  C    0.062872
     4  C   -0.273016
     5  C    0.177259
     6  C    0.211169
     7  H    0.185865
     8  H    0.187756
     9  H    0.192423
    10  O   -0.500683
    11  H    0.381939
    12  O   -0.565838
    13  H    0.400035
    14  C   -0.340241
    15  H    0.173061
    16  H    0.166896
    17  C   -0.174145
    18  H    0.148986
    19  H    0.153274
    20  N   -0.642041
    21  H    0.269183
    22  H    0.265576
 Sum of Mulliken charges =  -0.00000

 Dipole moment (field-independent basis, Debye):
    X=              0.7740    Y=              1.0624    Z=              2.5092  Tot=              2.8327
 Quadrupole moment (field-independent basis, Debye-Ang):
   XX=            -60.4409   YY=            -68.4426   ZZ=            -61.8132
   XY=             -4.4060   XZ=              6.8404   YZ=              0.1853

 Normal termination of Gaussian 16 at Sat Apr  1 17:51:22 2023.
